>> Start of run:  26-JUN-2026  19:46:51

                           *********************** 
                           *  WELCOME TO SIESTA  * 
                           *********************** 

 NOTE: Siesta V5 introduces some new defaults for basis-set generation
 NOTE: which might lead to slightly different numerical results.
 NOTE: Please see the manual for full details and compatibility measures.


reinit: Reading from file input.fdf

reinit: -----------------------------------------------------------------------
reinit: System Name: 
reinit: -----------------------------------------------------------------------
reinit: System Label: cap_0000
reinit: -----------------------------------------------------------------------

initatom: Reading input for the pseudopotentials and atomic orbitals ----------
Species number:   1 Atomic number:    1 Label: H
 
Ground state valence configuration (from tables):   1s01  2p00  3d00  4f00

---- Processing specs for species: H
Reading pseudopotential information in formatted form from:
  H.psf

---- Pseudopotential check for  H

Pseudized shells:
1s( 1.00) rc: 1.33
2p( 0.00) rc: 1.33
3d( 0.00) rc: 0.37
4f( 0.00) rc: 1.33
Valence configuration for ps generation: (assumed as above)
For H, standard SIESTA heuristics set lmxkb to 1
 (one more than the basis l, including polarization orbitals).
Use PS.lmax or PS.KBprojectors blocks to override.

<basis_specs>
===============================================================================
H                    Z=   1    Mass=  1.0080        Charge= 0.17977+309
Lmxo=0 Lmxkb= 1    BasisType=split      Semic=F
L=0  Nsemic=0  Cnfigmx=1
          i=1  nzeta=1  polorb=0  (1s)
            splnorm:   0.15000    
               vcte:    40.000    
               rinn:  -0.90000    
               qcoe:    0.0000    
               qyuk:    0.0000    
               qwid:   0.10000E-01
                rcs:    0.0000    
            lambdas:    1.0000    
-------------------------------------------------------------------------------
L=0  Nkbl=1  erefs: 0.17977+309
L=1  Nkbl=1  erefs: 0.17977+309
===============================================================================
</basis_specs>

Using PAO.SplitTailNorm
atom: Called for H                     (Z =   1)
Maximum radius (at nrval) set to   50.00000 8518

read_vps: Pseudopotential generation method:
read_vps: ATM 3.2.2 Troullier-Martins                       
Valence charge in pseudo generation:    1.00000

xc_check: Exchange-correlation functional:
xc_check: Ceperley-Alder
V l=0 = -2*Zval/r beyond r=  1.2674
V l=1 = -2*Zval/r beyond r=  1.2610
All V_l potentials equal beyond r=  1.2649
This should be close to max(r_c) in ps generation
All pots = -2*Zval/r beyond r=  1.2674
Using small-core scheme (local charge) for Vlocal

VLOCAL_FROM_CHLOCAL: 99.0% of the norm of Vloc inside     27.132 Ry
VLOCAL_FROM_CHLOCAL: 99.9% of the norm of Vloc inside     61.835 Ry
atom: Maximum radius for chlocal:    1.47710
atom: Maximum radius for r*vlocal+2*Zval:    1.33963

KBgen: Kleinman-Bylander projectors: 
GHOST: No ghost state for L =  0
   l= 0   rc=  1.391902   el= -0.467364   Ekb= -1.984328   kbcos= -0.343703
GHOST: No ghost state for L =  1
   l= 1   rc=  1.460834   el=  0.007561   Ekb= -0.479270   kbcos= -0.024014

KBgen: Total number of Kleinman-Bylander projectors:   4
atom: -------------------------------------------------------------------------

atom: SANKEY-TYPE ORBITALS:

SPLIT: Orbitals with angular momentum L= 0

SPLIT: Basis orbitals for state 1s

SPLIT: PAO cut-off radius determined from an
SPLIT: energy shift=  0.020000 Ry
Split based on tail norm

   izeta = 1
                 lambda =    1.000000
                     rc =    4.743256
                 energy =   -0.445430
                kinetic =    0.951742
    potential(screened) =   -1.397173
       potential(ionic) =   -1.935757
atom: Total number of Sankey-type orbitals:  1

atm_pop: Valence configuration (for local Pseudopot. screening):
 1s( 1.00)                                                            
Vna: chval, zval:    1.00000   1.00000

Vna:  Cut-off radius for the neutral-atom potential:   4.743256

atom: _________________________________________________________________________

prinput: Basis input 

PAO.BasisType split     

%block ChemicalSpeciesLabel
    1    1 H                       # Species index, atomic number, species label
%endblock ChemicalSpeciesLabel

%block PAO.Basis                 # Define Basis set
# WARNING: This information might be incomplete!
H                     1                    # Species label, number of l-shells
 n=1   0   1                         # n, l, Nzeta 
   4.743   
   1.000   
%endblock PAO.Basis

prinput: ----------------------------------------------------------------------

coor:   Atomic-coordinates input format  =     Cartesian coordinates
coor:                                          (in Angstroms)

siesta: Atomic coordinates (Bohr) and species
siesta:     16.13616  15.83789  15.11781  1        1
siesta:     15.11781  15.11781  15.11781  1        2

siesta: System type = molecule  

initatomlists: Number of atoms, orbitals, and projectors:      2     2     8

coxmol: Writing XMOL coordinates into file cap_0000.xyz                                                                                                                                                                                                                        

siesta: ******************** Simulation parameters ****************************
siesta:
siesta: The following are some of the parameters of the simulation.
siesta: A complete list of the parameters used, including default values,
siesta: can be found in file out.fdf
siesta:
redata: Spin configuration                          = none
redata: Number of spin components                   = 1
redata: Time-Reversal Symmetry                      = T
redata: Spin spiral                                 = F
redata: Long output                                 =   F
redata: Number of Atomic Species                    =        1
redata: Charge density info will appear in .RHO file
redata: Write Mulliken charges (when)               = none
redata: Write Mulliken Pop.                         = NO
redata: Write Hirshfeld charges (when)              = none
redata: Write Voronoi charges (when)                = none
redata: Write spin charge (when)                    = none
redata: Matel table size (NRTAB)                    =     1024
redata: Mesh Cutoff                                 =   100.0000 Ry
redata: Net charge of the system                    =     0.0000 |e|
redata: Min. number of SCF Iter                     =        0
redata: Max. number of SCF Iter                     =      100
redata: SCF convergence failure will abort job
redata: SCF mix quantity                            = Hamiltonian
redata: Mix DM or H after convergence               =   F
redata: Recompute H after scf cycle                 =   F
redata: Mix DM in first SCF step                    =   T
redata: Write Pulay info on disk                    =   F
redata: New DM Occupancy tolerance                  = 0.000000000001
redata: No kicks to SCF
redata: DM Mixing Weight for Kicks                  =     0.5000
redata: Require Harris convergence for SCF          =   F
redata: Harris energy tolerance for SCF             =     0.000100 eV
redata: Require DM convergence for SCF              =   T
redata: DM tolerance for SCF                        =     0.000100
redata: Require EDM convergence for SCF             =   F
redata: EDM tolerance for SCF                       =     0.001000 eV
redata: Require H convergence for SCF               =   T
redata: Hamiltonian tolerance for SCF               =     0.001000 eV
redata: Require (free) Energy convergence for SCF   =   F
redata: (free) Energy tolerance for SCF             =     0.000100 eV
redata: Using Saved Data (generic)                  =   F
redata: Use continuation files for DM               =   F
redata: Neglect nonoverlap interactions             =   F
redata: Method of Calculation                       = Diagonalization
redata: Electronic Temperature                      =   300.0000 K
redata: Fix the spin of the system                  =   F
redata: Max. number of TDED Iter                    =        1
redata: Number of TDED substeps                     =        3
redata: Dynamics option                             = Single-point calculation
mix.SCF: Pulay mixing                            = Pulay
mix.SCF:    Variant                              = stable
mix.SCF:    History steps                        = 6
mix.SCF:    Linear mixing weight                 =     0.050000
mix.SCF:    Mixing weight                        =     0.050000
mix.SCF:    SVD condition                        = 0.1000E-07
redata: ***********************************************************************

%block SCF.Mixers
  Pulay
%endblock SCF.Mixers

%block SCF.Mixer.Pulay
  # Mixing method
  method pulay
  variant stable

  # Mixing options
  weight 0.0500
  weight.linear 0.0500
  history 6
%endblock SCF.Mixer.Pulay
 
DM_history_depth set to one: no extrapolation allowed by default for geometry relaxation
Size of DM history Fstack: 1
Total number of electrons:     2.000000
Total ionic charge:     2.000000

* ProcessorY, Blocksize:    1   3


* Orbital distribution balance (max,min):     2     2


siesta: k-grid: Number of k-points = 1
siesta: k-point is Gamma-only
 
diag: Algorithm                                     = D&C
diag: Parallel over k                               =   F
diag: Use parallel 2D distribution                  =   F
diag: Parallel block-size                           = 3
diag: Parallel distribution                         =     1 x     1
diag: Used triangular part                          = Lower
diag: Absolute tolerance                            =  0.100E-15
diag: Orthogonalization factor                      =  0.100E-05
diag: Memory factor                                 =  1.0000
 
 
ts: **************************************************************
ts: Save H and S matrices                           =    F
ts: Save DM and EDM matrices                        =    F
ts: Only save the overlap matrix S                  =    F
ts: **************************************************************
 
************************ Begin: TS CHECKS AND WARNINGS ************************
************************ End: TS CHECKS AND WARNINGS **************************


                     ====================================
                        Single-point calculation
                     ====================================

outcell: Unit cell vectors (Ang):
       16.538887    0.000000    0.000000
        0.000000   16.381052    0.000000
        0.000000    0.000000   16.000000

outcell: Cell vector modules (Ang)   :   16.538887   16.381052   16.000000
outcell: Cell angles (23,13,12) (deg):     90.0000     90.0000     90.0000
outcell: Cell volume (Ang**3)        :   4334.7899
<dSpData1D:S at geom step 0
  <sparsity:sparsity for geom step 0
    nrows_g=2 nrows=2 sparsity=1.0000 nnzs=4, refcount: 7>
  <dData1D:(new from dSpData1D) n=4, refcount: 1>
refcount: 1>
new_DM -- step:     1
Initializing Density Matrix...
DM filled with atomic data:
<dSpData2D:DM initialized from atoms
  <sparsity:sparsity for geom step 0
    nrows_g=2 nrows=2 sparsity=1.0000 nnzs=4, refcount: 8>
  <dData2D:DM n=4 m=1, refcount: 1>
refcount: 1>
No. of atoms with KB's overlaping orbs in proc 0. Max # of overlaps:       2       2

InitMesh: MESH = 100 x 100 x 100 = 1000000
InitMesh: Mesh cutoff (required, used) =   100.000   101.039 Ry
New grid distribution [1]: sub = 2

stepf: Fermi-Dirac step function

siesta: Program's energy decomposition (eV):
siesta: Ebs     =       -24.047122
siesta: Eions   =        38.461913
siesta: Ena     =        11.638385
siesta: Ekin    =        22.199628
siesta: Enl     =        -8.239303
siesta: Eso     =         0.000000
siesta: Edftu   =         0.000000
siesta: DEna    =        -0.053424
siesta: DUscf   =         0.022526
siesta: DUext   =         0.000000
siesta: Ehfx    =         0.000000
siesta: Ex      =       -13.423900
siesta: Ec      =        -2.449450
siesta: Exc     =       -15.873350
siesta: EbV     =         0.000000
siesta: eta*DQ  =         0.000000
siesta: Emadel  =         0.000000
siesta: Emeta   =         0.000000
siesta: Emolmec =         0.000000
siesta: Ekinion =         0.000000
siesta: Eharris =       -32.292159
siesta: Etot    =       -28.767449
siesta: FreeEng =       -28.767449

        iscf     Eharris(eV)        E_KS(eV)     FreeEng(eV)     dDmax    Ef(eV) dHmax(eV)
   scf:    1      -32.292159      -28.767449      -28.767449  0.556527 -3.481698  0.138702
             Section          Calls    Walltime % sect.
 IterSCF_1                        1       0.232  100.00
  compute_dm                      1       0.038   16.52
  setup_H                         1       0.193   83.23
  MIXER                           1       0.000    0.02
   scf:    2      -28.767449      -28.767449      -28.767449  0.000000 -3.475017  0.131767
   scf:    3      -28.767449      -28.767449      -28.767449  0.000000 -3.348066  0.000000

SCF Convergence by DM+H criterion
max |DM_out - DM_in|         :     0.0000000000
max |H_out - H_in|      (eV) :     0.0000000000
SCF cycle converged after 3 iterations

Using DM_out to compute the final energy and forces
No. of atoms with KB's overlaping orbs in proc 0. Max # of overlaps:       2       2

siesta: E_KS(eV) =              -28.7674

siesta: E_KS - E_eggbox =       -28.7674

siesta: Atomic forces (eV/Ang):
----------------------------------------
   Tot    0.000000   -0.000000   -0.000000
----------------------------------------
   Max    9.006456
   Res    6.368679    sqrt( Sum f_i^2 / 3N )
----------------------------------------
   Max    9.006456    constrained

Stress tensor Voigt[x,y,z,yz,xz,xy] (kbar):       -1.79       -0.90        0.00        0.00       -0.00       -1.27
(Free)E + p*V (eV/cell)      -26.3408
Target enthalpy (eV/cell)      -28.7674

coxmol: Writing XMOL coordinates into file cap_0000.xyz                                                                                                                                                                                                                        

siesta: Program's energy decomposition (eV):
siesta: Ebs     =       -24.047122
siesta: Eions   =        38.461913
siesta: Ena     =        11.638385
siesta: Ekin    =        22.199628
siesta: Enl     =        -8.239303
siesta: Eso     =         0.000000
siesta: Edftu   =         0.000000
siesta: DEna    =        -0.053424
siesta: DUscf   =         0.022526
siesta: DUext   =         0.000000
siesta: Ehfx    =         0.000000
siesta: Ex      =       -13.423900
siesta: Ec      =        -2.449450
siesta: Exc     =       -15.873350
siesta: EbV     =         0.000000
siesta: eta*DQ  =         0.000000
siesta: Emadel  =         0.000000
siesta: Emeta   =         0.000000
siesta: Emolmec =         0.000000
siesta: Ekinion =         0.000000
siesta: Eharris =       -28.767449
siesta: Etot    =       -28.767449
siesta: FreeEng =       -28.767449

siesta: Final energy (eV):
siesta:  Band Struct. =     -24.047122
siesta:       Kinetic =      22.199628
siesta:       Hartree =      26.385601
siesta:         Edftu =       0.000000
siesta:       Eso     =       0.000000
siesta:    Ext. field =       0.000000
siesta:         Exch. =     -13.423900
siesta:         Corr. =      -2.449450
siesta:     Bulk bias =       0.000000
siesta:   Exch.-corr. =     -15.873350
siesta:  Ion-electron =     -78.311977
siesta:       Ion-ion =      16.832649
siesta:       Ekinion =       0.000000
siesta: D3 dispersion =       0.000000
siesta:         Total =     -28.767449
siesta:         Fermi =      -3.348066

siesta: Atomic forces (eV/Ang):
siesta:      1    9.006456    6.368983   -0.000000
siesta:      2   -9.006456   -6.368983    0.000000
siesta: ----------------------------------------
siesta:    Tot    0.000000   -0.000000   -0.000000

siesta: Stress tensor (static) (eV/Ang**3):
siesta:    -0.001120   -0.000792   -0.000000
siesta:    -0.000792   -0.000560    0.000000
siesta:    -0.000000    0.000000    0.000000

siesta: Cell volume =       4334.789923 Ang**3

siesta: Pressure (static):
siesta:                Solid            Molecule  Units
siesta:           0.00000610         -0.00000000  Ry/Bohr**3
siesta:           0.00055982         -0.00000003  eV/Ang**3
siesta:           0.89692281         -0.00004100  kBar
(Free)E+ p_basis*V_orbitals  =         -28.602074
(Free)Eharris+ p_basis*V_orbitals  =         -28.602074

siesta: Electric dipole (a.u.)  =    0.000000    0.000000    0.000000
siesta: Electric dipole (Debye) =    0.000000    0.000000    0.000000

cite: Please indicate the Siesta version in published work: NO_VERSION_LABEL_AVAILABLE
cite: This calculation has made use of features in the following articles
cite: which we encourage you to cite in published work.
cite: (Please see "cap_0000.bib" for a BibTeX file.)
        Primary SIESTA paper
          DOI: www.doi.org/10.1088/0953-8984/14/11/302
 

             Section          Calls    Walltime       %
 global_section                   1       1.491  100.00
  siesta                          1       1.491  100.00
   Setup                          1       0.192   12.86
    bands                         1       0.000    0.00
    KSV_init                      1       0.000    0.00
   IterGeom                       1       1.285   86.12
    geom_init                     1       0.418   28.05
     state_init                   1       0.007    0.48
      hsparse                     1       0.000    0.00
      overlap                     1       0.001    0.09
     Setup_H0                     1       0.216   14.50
      naefs                       1       0.001    0.04
      dnaefs                      1       0.000    0.00
      MolMec                      1       0.000    0.00
      kinefsm                     1       0.000    0.02
      nlefsm                      1       0.003    0.22
      DHSCF_Init                  1       0.212   14.22
       DHSCF1                     1       0.013    0.85
        InitMesh                  1       0.012    0.80
         INITMESH                 1       0.000    0.00
       DHSCF2                     1       0.199   13.34
        REMESH                    1       0.000    0.02
        REORD                     1       0.002    0.15
        PHION                     1       0.011    0.77
        COMM_BSC                  1       0.002    0.15
         REORD                    1       0.002    0.15
        POISON                    1       0.159   10.66
         fft                      2       0.154   10.33
     setup_H                      1       0.195   13.06
      DHSCF                       1       0.193   12.97
       DHSCF3                     1       0.193   12.97
        rhoofd                    1       0.000    0.03
        COMM_BSC                  2       0.004    0.29
         REORD                    2       0.004    0.29
        POISON                    1       0.151   10.12
         fft                      2       0.146    9.77
        XC                        1       0.023    1.51
         COMM_BSC                 2       0.001    0.06
         GXC-CellXC               1       0.018    1.19
          gridxc@cellXC           1       0.017    1.14
        vmat                      1       0.000    0.03
    IterSCF_1                     1       0.232   15.58
     compute_dm                   1       0.038    2.57
      diagon                      1       0.038    2.57
       r-eigvec                   1       0.038    2.54
        r-buildHS                 1       0.000    0.00
        rdiag                     1       0.038    2.53
         rdiag1                   1       0.020    1.37
         rdiag2                   1       0.005    0.34
         rdiag3                   1       0.005    0.33
         rdiag4                   1       0.001    0.04
       r-buildD                   1       0.000    0.00
     setup_H                      1       0.193   12.97
      DHSCF                       1       0.192   12.88
       DHSCF3                     1       0.192   12.88
        rhoofd                    1       0.000    0.02
        COMM_BSC                  2       0.004    0.29
         REORD                    2       0.004    0.29
        POISON                    1       0.151   10.12
         fft                      2       0.146    9.76
        XC                        1       0.021    1.42
         COMM_BSC                 2       0.001    0.07
         GXC-CellXC               1       0.016    1.10
          gridxc@cellXC           1       0.016    1.10
        vmat                      1       0.000    0.02
     MIXER                        1       0.000    0.00
    IterSCF_2                     1       0.194   13.01
     compute_dm                   1       0.000    0.02
      diagon                      1       0.000    0.01
       r-eigvec                   1       0.000    0.01
        r-buildHS                 1       0.000    0.00
        rdiag                     1       0.000    0.01
         rdiag1                   1       0.000    0.00
         rdiag2                   1       0.000    0.00
         rdiag3                   1       0.000    0.00
         rdiag4                   1       0.000    0.00
       r-buildD                   1       0.000    0.00
     setup_H                      1       0.193   12.97
      DHSCF                       1       0.192   12.89
       DHSCF3                     1       0.192   12.89
        rhoofd                    1       0.000    0.02
        COMM_BSC                  2       0.004    0.29
         REORD                    2       0.004    0.29
        POISON                    1       0.151   10.13
         fft                      2       0.146    9.76
        XC                        1       0.021    1.42
         COMM_BSC                 2       0.001    0.06
         GXC-CellXC               1       0.016    1.10
          gridxc@cellXC           1       0.016    1.10
        vmat                      1       0.000    0.02
     MIXER                        1       0.000    0.01
    IterSCF_3                     1       0.194   13.00
     compute_dm                   1       0.000    0.01
      diagon                      1       0.000    0.01
       r-eigvec                   1       0.000    0.01
        r-buildHS                 1       0.000    0.00
        rdiag                     1       0.000    0.01
         rdiag1                   1       0.000    0.00
         rdiag2                   1       0.000    0.00
         rdiag3                   1       0.000    0.00
         rdiag4                   1       0.000    0.00
       r-buildD                   1       0.000    0.00
     setup_H                      1       0.193   12.97
      DHSCF                       1       0.192   12.88
       DHSCF3                     1       0.192   12.88
        rhoofd                    1       0.000    0.02
        COMM_BSC                  2       0.004    0.29
         REORD                    2       0.004    0.29
        POISON                    1       0.151   10.12
         fft                      2       0.146    9.76
        XC                        1       0.021    1.43
         COMM_BSC                 2       0.001    0.06
         GXC-CellXC               1       0.016    1.10
          gridxc@cellXC           1       0.016    1.10
        vmat                      1       0.000    0.02
    PostSCF                       1       0.242   16.22
     FINAL_HF                     1       0.242   16.21
      naefs                       1       0.000    0.00
      dnaefs                      1       0.000    0.00
      kinefsm                     1       0.000    0.00
      nlefsm                      1       0.000    0.01
      DHSCF                       1       0.240   16.10
       DHSCF3                     1       0.192   12.89
        rhoofd                    1       0.000    0.02
        COMM_BSC                  2       0.004    0.29
         REORD                    2       0.004    0.29
        POISON                    1       0.151   10.13
         fft                      2       0.146    9.77
        XC                        1       0.021    1.42
         COMM_BSC                 2       0.001    0.07
         GXC-CellXC               1       0.016    1.10
          gridxc@cellXC           1       0.016    1.10
        vmat                      1       0.000    0.02
       DHSCF4                     1       0.048    3.21
        REORD                     4       0.009    0.59
        COMM_BSC                  2       0.004    0.30
         REORD                    2       0.004    0.30
        dfscf                     1       0.021    1.41
      overfsm                     1       0.000    0.01
      MolMec                      1       0.000    0.00
    state_analysis                1       0.003    0.22
    siesta_move                   1       0.000    0.01
   Analysis                       1       0.008    0.51
    optical                       1       0.000    0.00
 
>> End of run:  26-JUN-2026  19:46:53
Job completed
Job completed
[1782474415.247984] [localhost:1873282:0]     ucp_context.c:2134 UCX  INFO  Version 1.15.0 (loaded from /share/hmpi2.4.1/hucx-v2.4.1-huawei/lib/libucp.so.0)
[1782474417.910058] [localhost:1873282:0]          parser.c:2040 UCX  WARN  unused environment variable: UCX_HOME
[1782474417.910058] [localhost:1873282:0]          parser.c:2040 UCX  WARN  (set UCX_WARN_UNUSED_ENV_VARS=n to suppress this warning)
[1782474417.910149] [localhost:1873282:0]          parser.c:2047 UCX  INFO  UCX_* env variables: UCX_LOG_LEVEL=info UCX_TLS=rc,sm UCX_RC_VERBS_ROCE_LOCAL_SUBNET=y UCX_UD_VERBS_ROCE_LOCAL_SUBNET=y UCX_UD_VERBS_ALLOC=thp,md,mmap,heap UCX_RC_VERBS_ALLOC=thp,md,mmap,heap UCX_RC_VERBS_TX_MIN_SGE=2 UCX_UD_VERBS_TX_MIN_SGE=1
[1782474417.984447] [localhost:1873282:0]     ucp_context.c:2134 UCX  INFO  Version 1.15.0 (loaded from /share/hmpi2.4.1/hucx-v2.4.1-huawei/lib/libucp.so.0)
[1782474418.055373] [localhost:1873282:0]      ucp_worker.c:1857 UCX  INFO    0x28c3c820 self cfg#0 tag(sysv/memory cma/memory)
Executable      : /share/honpas/xzz/siesta-20260520/siesta/build-clang/Src/siesta
Version         : NO_VERSION_LABEL_AVAILABLE
Architecture    : aarch64
Compiler version: Flang-99.99.1
Compiler flags  : -fopenmp -O2 -DNDEBUG
Parallelisations: MPI, OpenMP
* OpenMP version: 201307
Native ELPA support
ELSI support. Solvers:
   ELPA (internal) 
   NTPoly
   OMM
   PEXSI
Libint support (hybrid XC)

Runtime information:
* Directory : /share/honpas/xzz/energy_first/weak_scale/ws8x8000/cap_0001
* Running in serial mode (only 1 MPI rank).
* Running 36 OpenMP threads.
* Running 36 processes.
* OpenMP bound (close)
* OpenMP runtime schedule STATIC, chunks 0
OMP: Info #278: omp_get_nested routine deprecated, please use omp_get_max_active_levels instead.
OMP: Info #278: omp_set_nested routine deprecated, please use omp_set_max_active_levels instead.
** OpenMP (trying to FORCE nesting)
* OpenMP allows 2147483647 nested levels.
